# vtk DataFile Version 5.1
vtk output
ASCII
DATASET UNSTRUCTURED_GRID
POINTS 1066 float
0 0 0 0.25 0 0 0.5 0 0 
0.75 0 0 1 0 0 1.25 0 0 
1.5 0 0 1.75 0 0 2 0 0 
2.25 0 0 2.5 0 0 2.75 0 0 
3 0 0 3.25 0 0 3.5 0 0 
3.75 0 0 4 0 0 4.25 0 0 
4.5 0 0 4.75 0 0 5 0 0 
5.25 0 0 5.5 0 0 5.75 0 0 
6 0 0 6.25 0 0 6.5 0 0 
6.75 0 0 7 0 0 7.25 0 0 
7.5 0 0 7.75 0 0 8 0 0 
8.25 0 0 8.5 0 0 8.75 0 0 
9 0 0 9.25 0 0 9.5 0 0 
9.75 0 0 10 0 0 0 0.4 0 
0.25 0.4 0 0.5 0.4 0 0.75 0.4 0 
1 0.4 0 1.25 0.4 0 1.5 0.4 0 
1.75 0.4 0 2 0.4 0 2.25 0.4 0 
2.5 0.4 0 2.75 0.4 0 3 0.4 0 
3.25 0.4 0 3.5 0.4 0 3.75 0.4 0 
4 0.4 0 4.25 0.4 0 4.5 0.4 0 
4.75 0.4 0 5 0.4 0 5.25 0.4 0 
5.5 0.4 0 5.75 0.4 0 6 0.4 0 
6.25 0.4 0 6.5 0.4 0 6.75 0.4 0 
7 0.4 0 7.25 0.4 0 7.5 0.4 0 
7.75 0.4 0 8 0.4 0 8.25 0.4 0 
8.5 0.4 0 8.75 0.4 0 9 0.4 0 
9.25 0.4 0 9.5 0.4 0 9.75 0.4 0 
10 0.4 0 0 0.8 0 0.25 0.8 0 
0.5 0.8 0 0.75 0.8 0 1 0.8 0 
1.25 0.8 0 1.5 0.8 0 1.75 0.8 0 
2 0.8 0 2.25 0.8 0 2.5 0.8 0 
2.75 0.8 0 3 0.8 0 3.25 0.8 0 
3.5 0.8 0 3.75 0.8 0 4 0.8 0 
4.25 0.8 0 4.5 0.8 0 4.75 0.8 0 
5 0.8 0 5.25 0.8 0 5.5 0.8 0 
5.75 0.8 0 6 0.8 0 6.25 0.8 0 
6.5 0.8 0 6.75 0.8 0 7 0.8 0 
7.25 0.8 0 7.5 0.8 0 7.75 0.8 0 
8 0.8 0 8.25 0.8 0 8.5 0.8 0 
8.75 0.8 0 9 0.8 0 9.25 0.8 0 
9.5 0.8 0 9.75 0.8 0 10 0.8 0 
0 1.2 0 0.25 1.2 0 0.5 1.2 0 
0.75 1.2 0 1 1.2 0 1.25 1.2 0 
1.5 1.2 0 1.75 1.2 0 2 1.2 0 
2.25 1.2 0 2.5 1.2 0 2.75 1.2 0 
3 1.2 0 3.25 1.2 0 3.5 1.2 0 
3.75 1.2 0 4 1.2 0 4.25 1.2 0 
4.5 1.2 0 4.75 1.2 0 5 1.2 0 
5.25 1.2 0 5.5 1.2 0 5.75 1.2 0 
6 1.2 0 6.25 1.2 0 6.5 1.2 0 
6.75 1.2 0 7 1.2 0 7.25 1.2 0 
7.5 1.2 0 7.75 1.2 0 8 1.2 0 
8.25 1.2 0 8.5 1.2 0 8.75 1.2 0 
9 1.2 0 9.25 1.2 0 9.5 1.2 0 
9.75 1.2 0 10 1.2 0 0 1.6 0 
0.25 1.6 0 0.5 1.6 0 0.75 1.6 0 
1 1.6 0 1.25 1.6 0 1.5 1.6 0 
1.75 1.6 0 2 1.6 0 2.25 1.6 0 
2.5 1.6 0 2.75 1.6 0 3 1.6 0 
3.25 1.6 0 3.5 1.6 0 3.75 1.6 0 
4 1.6 0 4.25 1.6 0 4.5 1.6 0 
4.75 1.6 0 5 1.6 0 5.25 1.6 0 
5.5 1.6 0 5.75 1.6 0 6 1.6 0 
6.25 1.6 0 6.5 1.6 0 6.75 1.6 0 
7 1.6 0 7.25 1.6 0 7.5 1.6 0 
7.75 1.6 0 8 1.6 0 8.25 1.6 0 
8.5 1.6 0 8.75 1.6 0 9 1.6 0 
9.25 1.6 0 9.5 1.6 0 9.75 1.6 0 
10 1.6 0 0 2 0 0.25 2 0 
0.5 2 0 0.75 2 0 1 2 0 
1.25 2 0 1.5 2 0 1.75 2 0 
2 2 0 2.25 2 0 2.5 2 0 
2.75 2 0 3 2 0 3.25 2 0 
3.5 2 0 3.75 2 0 4 2 0 
4.25 2 0 4.5 2 0 4.75 2 0 
5 2 0 5.25 2 0 5.5 2 0 
5.75 2 0 6 2 0 6.25 2 0 
6.5 2 0 6.75 2 0 7 2 0 
7.25 2 0 7.5 2 0 7.75 2 0 
8 2 0 8.25 2 0 8.5 2 0 
8.75 2 0 9 2 0 9.25 2 0 
9.5 2 0 9.75 2 0 10 2 0 
0 2.4 0 0.25 2.4 0 0.5 2.4 0 
0.75 2.4 0 1 2.4 0 1.25 2.4 0 
1.5 2.4 0 1.75 2.4 0 2 2.4 0 
2.25 2.4 0 2.5 2.4 0 2.75 2.4 0 
3 2.4 0 3.25 2.4 0 3.5 2.4 0 
3.75 2.4 0 4 2.4 0 4.25 2.4 0 
4.5 2.4 0 4.75 2.4 0 5 2.4 0 
5.25 2.4 0 5.5 2.4 0 5.75 2.4 0 
6 2.4 0 6.25 2.4 0 6.5 2.4 0 
6.75 2.4 0 7 2.4 0 7.25 2.4 0 
7.5 2.4 0 7.75 2.4 0 8 2.4 0 
8.25 2.4 0 8.5 2.4 0 8.75 2.4 0 
9 2.4 0 9.25 2.4 0 9.5 2.4 0 
9.75 2.4 0 10 2.4 0 0 2.8 0 
0.25 2.8 0 0.5 2.8 0 0.75 2.8 0 
1 2.8 0 1.25 2.8 0 1.5 2.8 0 
1.75 2.8 0 2 2.8 0 2.25 2.8 0 
2.5 2.8 0 2.75 2.8 0 3 2.8 0 
3.25 2.8 0 3.5 2.8 0 3.75 2.8 0 
4 2.8 0 4.25 2.8 0 4.5 2.8 0 
4.75 2.8 0 5 2.8 0 5.25 2.8 0 
5.5 2.8 0 5.75 2.8 0 6 2.8 0 
6.25 2.8 0 6.5 2.8 0 6.75 2.8 0 
7 2.8 0 7.25 2.8 0 7.5 2.8 0 
7.75 2.8 0 8 2.8 0 8.25 2.8 0 
8.5 2.8 0 8.75 2.8 0 9 2.8 0 
9.25 2.8 0 9.5 2.8 0 9.75 2.8 0 
10 2.8 0 0 3.2 0 0.25 3.2 0 
0.5 3.2 0 0.75 3.2 0 1 3.2 0 
1.25 3.2 0 1.5 3.2 0 1.75 3.2 0 
2 3.2 0 2.25 3.2 0 2.5 3.2 0 
2.75 3.2 0 3 3.2 0 3.25 3.2 0 
3.5 3.2 0 3.75 3.2 0 4 3.2 0 
4.25 3.2 0 4.5 3.2 0 4.75 3.2 0 
5 3.2 0 5.25 3.2 0 5.5 3.2 0 
5.75 3.2 0 6 3.2 0 6.25 3.2 0 
6.5 3.2 0 6.75 3.2 0 7 3.2 0 
7.25 3.2 0 7.5 3.2 0 7.75 3.2 0 
8 3.2 0 8.25 3.2 0 8.5 3.2 0 
8.75 3.2 0 9 3.2 0 9.25 3.2 0 
9.5 3.2 0 9.75 3.2 0 10 3.2 0 
0 3.6 0 0.25 3.6 0 0.5 3.6 0 
0.75 3.6 0 1 3.6 0 1.25 3.6 0 
1.5 3.6 0 1.75 3.6 0 2 3.6 0 
2.25 3.6 0 2.5 3.6 0 2.75 3.6 0 
3 3.6 0 3.25 3.6 0 3.5 3.6 0 
3.75 3.6 0 4 3.6 0 4.25 3.6 0 
4.5 3.6 0 4.75 3.6 0 5 3.6 0 
5.25 3.6 0 5.5 3.6 0 5.75 3.6 0 
6 3.6 0 6.25 3.6 0 6.5 3.6 0 
6.75 3.6 0 7 3.6 0 7.25 3.6 0 
7.5 3.6 0 7.75 3.6 0 8 3.6 0 
8.25 3.6 0 8.5 3.6 0 8.75 3.6 0 
9 3.6 0 9.25 3.6 0 9.5 3.6 0 
9.75 3.6 0 10 3.6 0 0 4 0 
0.25 4 0 0.5 4 0 0.75 4 0 
1 4 0 1.25 4 0 1.5 4 0 
1.75 4 0 2 4 0 2.25 4 0 
2.5 4 0 2.75 4 0 3 4 0 
3.25 4 0 3.5 4 0 3.75 4 0 
4 4 0 4.25 4 0 4.5 4 0 
4.75 4 0 5 4 0 5.25 4 0 
5.5 4 0 5.75 4 0 6 4 0 
6.25 4 0 6.5 4 0 6.75 4 0 
7 4 0 7.25 4 0 7.5 4 0 
7.75 4 0 8 4 0 8.25 4 0 
8.5 4 0 8.75 4 0 9 4 0 
9.25 4 0 9.5 4 0 9.75 4 0 
10 4 0 0 4.4 0 0.25 4.4 0 
0.5 4.4 0 0.75 4.4 0 1 4.4 0 
1.25 4.4 0 1.5 4.4 0 1.75 4.4 0 
2 4.4 0 2.25 4.4 0 2.5 4.4 0 
2.75 4.4 0 3 4.4 0 3.25 4.4 0 
3.5 4.4 0 3.75 4.4 0 4 4.4 0 
4.25 4.4 0 4.5 4.4 0 4.75 4.4 0 
5 4.4 0 5.25 4.4 0 5.5 4.4 0 
5.75 4.4 0 6 4.4 0 6.25 4.4 0 
6.5 4.4 0 6.75 4.4 0 7 4.4 0 
7.25 4.4 0 7.5 4.4 0 7.75 4.4 0 
8 4.4 0 8.25 4.4 0 8.5 4.4 0 
8.75 4.4 0 9 4.4 0 9.25 4.4 0 
9.5 4.4 0 9.75 4.4 0 10 4.4 0 
0 4.8 0 0.25 4.8 0 0.5 4.8 0 
0.75 4.8 0 1 4.8 0 1.25 4.8 0 
1.5 4.8 0 1.75 4.8 0 2 4.8 0 
2.25 4.8 0 2.5 4.8 0 2.75 4.8 0 
3 4.8 0 3.25 4.8 0 3.5 4.8 0 
3.75 4.8 0 4 4.8 0 4.25 4.8 0 
4.5 4.8 0 4.75 4.8 0 5 4.8 0 
5.25 4.8 0 5.5 4.8 0 5.75 4.8 0 
6 4.8 0 6.25 4.8 0 6.5 4.8 0 
6.75 4.8 0 7 4.8 0 7.25 4.8 0 
7.5 4.8 0 7.75 4.8 0 8 4.8 0 
8.25 4.8 0 8.5 4.8 0 8.75 4.8 0 
9 4.8 0 9.25 4.8 0 9.5 4.8 0 
9.75 4.8 0 10 4.8 0 0 5.2 0 
0.25 5.2 0 0.5 5.2 0 0.75 5.2 0 
1 5.2 0 1.25 5.2 0 1.5 5.2 0 
1.75 5.2 0 2 5.2 0 2.25 5.2 0 
2.5 5.2 0 2.75 5.2 0 3 5.2 0 
3.25 5.2 0 3.5 5.2 0 3.75 5.2 0 
4 5.2 0 4.25 5.2 0 4.5 5.2 0 
4.75 5.2 0 5 5.2 0 5.25 5.2 0 
5.5 5.2 0 5.75 5.2 0 6 5.2 0 
6.25 5.2 0 6.5 5.2 0 6.75 5.2 0 
7 5.2 0 7.25 5.2 0 7.5 5.2 0 
7.75 5.2 0 8 5.2 0 8.25 5.2 0 
8.5 5.2 0 8.75 5.2 0 9 5.2 0 
9.25 5.2 0 9.5 5.2 0 9.75 5.2 0 
10 5.2 0 0 5.6 0 0.25 5.6 0 
0.5 5.6 0 0.75 5.6 0 1 5.6 0 
1.25 5.6 0 1.5 5.6 0 1.75 5.6 0 
2 5.6 0 2.25 5.6 0 2.5 5.6 0 
2.75 5.6 0 3 5.6 0 3.25 5.6 0 
3.5 5.6 0 3.75 5.6 0 4 5.6 0 
4.25 5.6 0 4.5 5.6 0 4.75 5.6 0 
5 5.6 0 5.25 5.6 0 5.5 5.6 0 
5.75 5.6 0 6 5.6 0 6.25 5.6 0 
6.5 5.6 0 6.75 5.6 0 7 5.6 0 
7.25 5.6 0 7.5 5.6 0 7.75 5.6 0 
8 5.6 0 8.25 5.6 0 8.5 5.6 0 
8.75 5.6 0 9 5.6 0 9.25 5.6 0 
9.5 5.6 0 9.75 5.6 0 10 5.6 0 
0 6 0 0.25 6 0 0.5 6 0 
0.75 6 0 1 6 0 1.25 6 0 
1.5 6 0 1.75 6 0 2 6 0 
2.25 6 0 2.5 6 0 2.75 6 0 
3 6 0 3.25 6 0 3.5 6 0 
3.75 6 0 4 6 0 4.25 6 0 
4.5 6 0 4.75 6 0 5 6 0 
5.25 6 0 5.5 6 0 5.75 6 0 
6 6 0 6.25 6 0 6.5 6 0 
6.75 6 0 7 6 0 7.25 6 0 
7.5 6 0 7.75 6 0 8 6 0 
8.25 6 0 8.5 6 0 8.75 6 0 
9 6 0 9.25 6 0 9.5 6 0 
9.75 6 0 10 6 0 0 6.4 0 
0.25 6.4 0 0.5 6.4 0 0.75 6.4 0 
1 6.4 0 1.25 6.4 0 1.5 6.4 0 
1.75 6.4 0 2 6.4 0 2.25 6.4 0 
2.5 6.4 0 2.75 6.4 0 3 6.4 0 
3.25 6.4 0 3.5 6.4 0 3.75 6.4 0 
4 6.4 0 4.25 6.4 0 4.5 6.4 0 
4.75 6.4 0 5 6.4 0 5.25 6.4 0 
5.5 6.4 0 5.75 6.4 0 6 6.4 0 
6.25 6.4 0 6.5 6.4 0 6.75 6.4 0 
7 6.4 0 7.25 6.4 0 7.5 6.4 0 
7.75 6.4 0 8 6.4 0 8.25 6.4 0 
8.5 6.4 0 8.75 6.4 0 9 6.4 0 
9.25 6.4 0 9.5 6.4 0 9.75 6.4 0 
10 6.4 0 0 6.8 0 0.25 6.8 0 
0.5 6.8 0 0.75 6.8 0 1 6.8 0 
1.25 6.8 0 1.5 6.8 0 1.75 6.8 0 
2 6.8 0 2.25 6.8 0 2.5 6.8 0 
2.75 6.8 0 3 6.8 0 3.25 6.8 0 
3.5 6.8 0 3.75 6.8 0 4 6.8 0 
4.25 6.8 0 4.5 6.8 0 4.75 6.8 0 
5 6.8 0 5.25 6.8 0 5.5 6.8 0 
5.75 6.8 0 6 6.8 0 6.25 6.8 0 
6.5 6.8 0 6.75 6.8 0 7 6.8 0 
7.25 6.8 0 7.5 6.8 0 7.75 6.8 0 
8 6.8 0 8.25 6.8 0 8.5 6.8 0 
8.75 6.8 0 9 6.8 0 9.25 6.8 0 
9.5 6.8 0 9.75 6.8 0 10 6.8 0 
0 7.2 0 0.25 7.2 0 0.5 7.2 0 
0.75 7.2 0 1 7.2 0 1.25 7.2 0 
1.5 7.2 0 1.75 7.2 0 2 7.2 0 
2.25 7.2 0 2.5 7.2 0 2.75 7.2 0 
3 7.2 0 3.25 7.2 0 3.5 7.2 0 
3.75 7.2 0 4 7.2 0 4.25 7.2 0 
4.5 7.2 0 4.75 7.2 0 5 7.2 0 
5.25 7.2 0 5.5 7.2 0 5.75 7.2 0 
6 7.2 0 6.25 7.2 0 6.5 7.2 0 
6.75 7.2 0 7 7.2 0 7.25 7.2 0 
7.5 7.2 0 7.75 7.2 0 8 7.2 0 
8.25 7.2 0 8.5 7.2 0 8.75 7.2 0 
9 7.2 0 9.25 7.2 0 9.5 7.2 0 
9.75 7.2 0 10 7.2 0 0 7.6 0 
0.25 7.6 0 0.5 7.6 0 0.75 7.6 0 
1 7.6 0 1.25 7.6 0 1.5 7.6 0 
1.75 7.6 0 2 7.6 0 2.25 7.6 0 
2.5 7.6 0 2.75 7.6 0 3 7.6 0 
3.25 7.6 0 3.5 7.6 0 3.75 7.6 0 
4 7.6 0 4.25 7.6 0 4.5 7.6 0 
4.75 7.6 0 5 7.6 0 5.25 7.6 0 
5.5 7.6 0 5.75 7.6 0 6 7.6 0 
6.25 7.6 0 6.5 7.6 0 6.75 7.6 0 
7 7.6 0 7.25 7.6 0 7.5 7.6 0 
7.75 7.6 0 8 7.6 0 8.25 7.6 0 
8.5 7.6 0 8.75 7.6 0 9 7.6 0 
9.25 7.6 0 9.5 7.6 0 9.75 7.6 0 
10 7.6 0 0 8 0 0.25 8 0 
0.5 8 0 0.75 8 0 1 8 0 
1.25 8 0 1.5 8 0 1.75 8 0 
2 8 0 2.25 8 0 2.5 8 0 
2.75 8 0 3 8 0 3.25 8 0 
3.5 8 0 3.75 8 0 4 8 0 
4.25 8 0 4.5 8 0 4.75 8 0 
5 8 0 5.25 8 0 5.5 8 0 
5.75 8 0 6 8 0 6.25 8 0 
6.5 8 0 6.75 8 0 7 8 0 
7.25 8 0 7.5 8 0 7.75 8 0 
8 8 0 8.25 8 0 8.5 8 0 
8.75 8 0 9 8 0 9.25 8 0 
9.5 8 0 9.75 8 0 10 8 0 
0 8.4 0 0.25 8.4 0 0.5 8.4 0 
0.75 8.4 0 1 8.4 0 1.25 8.4 0 
1.5 8.4 0 1.75 8.4 0 2 8.4 0 
2.25 8.4 0 2.5 8.4 0 2.75 8.4 0 
3 8.4 0 3.25 8.4 0 3.5 8.4 0 
3.75 8.4 0 4 8.4 0 4.25 8.4 0 
4.5 8.4 0 4.75 8.4 0 5 8.4 0 
5.25 8.4 0 5.5 8.4 0 5.75 8.4 0 
6 8.4 0 6.25 8.4 0 6.5 8.4 0 
6.75 8.4 0 7 8.4 0 7.25 8.4 0 
7.5 8.4 0 7.75 8.4 0 8 8.4 0 
8.25 8.4 0 8.5 8.4 0 8.75 8.4 0 
9 8.4 0 9.25 8.4 0 9.5 8.4 0 
9.75 8.4 0 10 8.4 0 0 8.8 0 
0.25 8.8 0 0.5 8.8 0 0.75 8.8 0 
1 8.8 0 1.25 8.8 0 1.5 8.8 0 
1.75 8.8 0 2 8.8 0 2.25 8.8 0 
2.5 8.8 0 2.75 8.8 0 3 8.8 0 
3.25 8.8 0 3.5 8.8 0 3.75 8.8 0 
4 8.8 0 4.25 8.8 0 4.5 8.8 0 
4.75 8.8 0 5 8.8 0 5.25 8.8 0 
5.5 8.8 0 5.75 8.8 0 6 8.8 0 
6.25 8.8 0 6.5 8.8 0 6.75 8.8 0 
7 8.8 0 7.25 8.8 0 7.5 8.8 0 
7.75 8.8 0 8 8.8 0 8.25 8.8 0 
8.5 8.8 0 8.75 8.8 0 9 8.8 0 
9.25 8.8 0 9.5 8.8 0 9.75 8.8 0 
10 8.8 0 0 9.2 0 0.25 9.2 0 
0.5 9.2 0 0.75 9.2 0 1 9.2 0 
1.25 9.2 0 1.5 9.2 0 1.75 9.2 0 
2 9.2 0 2.25 9.2 0 2.5 9.2 0 
2.75 9.2 0 3 9.2 0 3.25 9.2 0 
3.5 9.2 0 3.75 9.2 0 4 9.2 0 
4.25 9.2 0 4.5 9.2 0 4.75 9.2 0 
5 9.2 0 5.25 9.2 0 5.5 9.2 0 
5.75 9.2 0 6 9.2 0 6.25 9.2 0 
[...]
POINT_DATA 1066
FIELD FieldData 2
Temperature 1 1066 double
1000 882.49690258 778.80078307 687.28927879 606.53065971 535.26142852 472.36655274 416.86201968 367.87944117 
324.65246736 286.50479686 252.8395958 223.13016015 196.9116752 173.77394345 153.35496684 135.33528324 119.43296827 
105.39922456 93.014489211 82.084998624 72.439757034 63.927861207 56.416139504 49.787068368 43.936933623 38.774207832 
34.218118312 30.197383422 26.649097336 23.517745856 20.754337874 18.315638889 16.163494588 14.264233909 12.588142242 
11.108996538 9.8036550358 8.6516952031 7.6350942189 6.7379469991 818.73075308 789.89952251 726.03561283 653.76978513 
583.61341223 518.80860651 460.14724872 407.56039302 360.66565879 318.97597637 281.98570802 249.20751821 220.18777035 
194.5119977 171.80563067 151.73245139 133.99200778 118.31662163 104.46832123 92.235870229 81.431977365 71.890724907 
63.465226593 56.025511704 49.456624036 43.656920685 38.536554099 34.016120561 30.025458858 26.502583792 23.392740352 
20.647565549 18.224346139 16.085361587 14.197302746 12.530757679 11.059757026 9.7613720981 8.6153596596 7.603848036 
6.711059772 670.32004604 657.65397137 623.94125567 577.93561746 527.1277111 476.14106959 427.41493195 382.09192031 
340.60461493 303.0082053 269.16237019 238.83069931 211.7354905 187.58807752 166.10547396 147.01921933 130.07971743 
115.05795091 101.7456735 89.954735791 79.515939526 70.277660733 62.10438713 54.875257485 48.482654214 42.830877795 
37.834917248 33.419321979 29.517174731 26.069162057 23.022736805 20.331366129 17.95385815 15.853760336 13.998822953 
12.360521197 10.913630142 9.6358470017 8.5074557569 7.5110295742 6.6311669375 548.81163609 541.78689712 522.04577676 
492.85089993 457.93640071 420.46830685 382.71349077 346.12518649 311.55157677 279.43096822 249.93798238 223.08368277 
198.78142154 176.88929039 157.23716631 139.6437542 123.92716044 109.91128411 97.429503411 86.326615903 76.459657787 
67.69801225 59.923077017 53.027669466 46.915286984 41.499299845 36.702126826 32.454425548 28.694317254 25.366657481 
22.422358506 19.817765787 17.514088177 15.476880186 13.6755736 12.083055256 10.675287532 9.430968032 8.3312250248 
7.3593453367 6.500531574 449.32896412 444.98854575 432.50874606 413.32137027 389.30269052 362.33103445 334.00957793 
305.56566824 277.86362381 251.46693501 226.71031815 203.76379432 182.68352405 163.44976743 145.99423556 130.21934083 
116.01150371 103.25019682 91.813972482 81.584375244 72.448381524 64.299821373 57.040102932 50.578465248 44.831917938 
39.724978783 35.189286826 31.163144873 27.591028479 24.423086624 21.614650853 19.125763681 16.920732888 14.967715352 
13.238332067 11.707314569 10.352182077 9.1529480489 8.0918544912 7.15313215 6.3227846387 367.87944117 365.02763405 
356.72988565 343.69506002 326.92189535 307.51000936 286.50479686 264.80323808 243.11673443 221.97304523 201.7388864 
182.64994742 164.84071455 148.37058379 133.24517362 119.43296827 106.87792566 95.508810567 85.245968825 76.006150373 
67.70586954 60.263682812 53.601674127 47.646366036 42.329219623 37.586843862 33.361003294 29.598489183 26.25090158 
23.274376627 20.629283694 18.27990978 16.194143319 14.343165649 12.70115558 11.245010411 9.9540853051 8.8099518213 
7.7961757051 6.8981135083 6.1027272742 301.19421191 299.24493773 293.53304189 284.4410945 272.53179303 258.46217705 
242.90200956 226.47183875 209.70574709 193.03603166 176.79359707 161.21764413 146.46961602 132.6480774 119.80264472 
107.94609337 97.064384985 87.124693858 78.081666001 69.882195139 62.468995035 55.783217821 49.766329517 44.361415443 
39.51405355 35.172864247 31.289821054 27.820387024 24.72352647 21.961629575 19.500378087 17.308573193 15.357941095 
13.622927672 12.080490375 10.709893123 9.4925081349 8.4116272937 7.4522846133 6.6010906648 5.8460792689 246.59696394 
245.22741372 241.19579081 234.72203281 226.13867205 215.8492977 204.28524185 191.86818137 178.98289195 165.9609921 
153.0742107 140.53468599 128.49973295 117.07895322 106.34215743 96.327123662 87.046647736 78.49464006 70.65121306 
63.486810473 56.965482977 51.047434004 45.690959435 40.853894835 36.494669453 32.573050796 29.05064898 25.891236969 
23.060931623 20.528271112 18.264216573 16.242099673 14.437532782 12.828294473 11.394200007 10.116963982 8.980060431 
7.9685842132 7.0691163698 6.269595288 5.5591948392 201.89651799 200.91459041 198.01480585 193.32978012 187.06381542 
179.47159322 170.83455513 161.43872461 151.55658485 141.43422663 131.28377853 121.28035318 111.56239815 102.23431581 
93.370377609 85.01918916 77.208193437 69.947893042 63.235619402 57.058778523 51.397568354 46.227201164 41.519683874 
37.24521664 33.37326996 29.87339635 26.715826474 23.871892763 21.314316818 19.017390702 16.957076725 15.111045616 
13.458668994 11.980978736 10.660603143 9.4816875852 8.4298055429 7.4918645322 6.6560102839 5.9115316459 5.2487679854 
165.29888822 164.58385899 162.46735584 159.03235597 154.40841073 148.76016493 142.27407159 135.14516851 127.56540976 
119.71447401 111.75339115 103.82086691 96.031895032 88.478119042 81.229398883 74.336104421 67.831756454 61.735738971 
56.055898038 50.790916399 45.932407736 41.466712747 37.376403882 33.641520317 30.24056219 27.151275927 24.351262137 
21.818435531 19.531363305 17.469505137 15.61337458 13.944638543 12.446168681 11.102056066 9.897598368 8.8192669407 
7.8546597355 6.9924446764 6.222297128 5.5348342427 4.9215483031 135.33528324 134.80817422 133.24517362 130.69974956 
127.25621132 123.02326111 118.12629428 112.69940363 106.87792566 100.79213332 94.562405855 88.295955202 82.084998624 
76.006150373 70.120754898 64.475883461 59.105746562 54.033320172 49.27203281 44.82740593 40.698578285 36.879674893 
33.361003294 30.130075154 27.172461172 24.47249317 22.013830135 19.779905969 17.754276293 15.92088053 14.264233909 
12.769562294 11.422890993 10.211097037 9.1219328959 8.144028243 7.2668752009 6.4808014696 5.7769348945 5.1471622938 
4.5840847701 110.80315836 110.41069499 109.24535287 107.34241749 104.75794932 101.56503286 97.849190325 93.703464774 
89.223645119 84.50400979 79.633837218 74.694799233 69.759240195 64.889261892 60.136484442 55.54233272 51.138698997 
46.948847649 42.988450366 39.266664902 35.787193928 32.549280989 29.548617227 26.778145383 24.228756951 21.889884827 
19.749997966 17.797006955 16.018590552 14.402453475 12.936525407 11.609110478 10.40899561 9.3255251377 8.3486481623 
7.4689441616 6.6776315376 5.9665630101 5.3282110977 4.7556463355 4.2425103829 90.717953289 90.423326918 89.547532759 
88.114320492 86.16164668 83.739426877 80.906736239 77.728733496 74.273578214 70.609572415 66.802696964 62.914644559 
59.001386248 55.112255209 51.289493746 47.56818728 43.976500364 40.536131237 37.262909519 34.16747344 31.255975964 
28.530781828 25.991128779 23.633735769 21.453348416 19.443217754 17.595512437 15.901667394 14.352673683 12.939315296 
11.652359073 10.482703866 9.4214948325 8.4602083249 7.5907122798 6.8053064901 6.0967465655 5.4582548657 4.8835211974 
4.366695624 3.9023753406 74.273578214 74.05086379 73.38823977 72.301957801 70.818114324 68.971268666 66.802696964 
64.358435762 61.687272148 58.838821879 55.86180828 52.802619105 49.704182029 46.605166825 43.539496434 40.536131237 
37.619080644 34.807592423 32.116471507 29.556484569 27.134813097 24.855524866 22.720040694 20.727579804 18.875572593 
17.160034094 15.575894965 14.117289429 12.777801501 11.550672062 10.428970095 9.4057318318 8.4740716058 7.6272681902 
6.8588301668 6.1625436029 5.5325049901 4.9631420697 4.449224835 3.9858686921 3.5685314676 60.810062625 60.640712396 
60.136484442 59.308656829 58.175409503 56.760955878 55.094432685 53.208636399 51.138698997 48.920790149 46.590919316 
44.183892765 41.732460036 39.266664902 36.813399022 34.3961436 32.034875611 29.746110396 27.5430509 25.435814868 
23.431713982 21.535562622 19.749997966 18.075797209 16.512181368 15.05709843 13.707481288 12.459478111 11.308654446 
10.25016761 9.2789147529 8.3896565632 7.5771188821 6.8360746377 6.1614085181 5.5481667124 4.9915939069 4.4871595377 
4.030575104 3.6178041411 3.2450662508 49.787068368 49.657639296 49.27203281 48.638170475 47.768862439 46.681251206 
45.396093712 43.936933623 42.329219623 40.599423804 38.774207832 36.879674893 34.940734028 32.98059186 31.020376085 
29.07888631 27.172461172 25.31494636 23.517745856 21.789938199 20.138440293 18.568202954 17.082424535 15.682771362 
14.36959609 13.142147293 11.998765575 10.937063168 9.9540853051 9.0464527794 8.2104858612 7.4423103608 6.7379469991 
6.0933854977 5.5046449232 4.967821855 4.4791279156 4.0349181285 3.6317114661 3.2662048287 2.9352815706 40.762203978 
40.662846102 40.366672639 39.879306141 39.209863335 38.370592847 37.376403882 36.244316991 34.992871039 33.641520317 
32.210052772 30.718055244 29.184445225 27.627081802 26.062461804 24.505501372 22.969398411 21.465567983 20.003640464 
18.591511231 17.235430504 15.940122495 14.708924068 13.543934411 12.446168681 11.415709968 10.45185533 9.5532528124 
8.7180274148 7.943894839 7.2282625255 6.5683180238 5.9611051339 5.4035885278 4.892707741 4.4254215207 3.9987435612 
3.6097706487 3.2557042066 2.9338661674 2.6417100327 33.37326996 33.296698928 33.068345392 32.692236856 32.174918598 
31.525214223 30.753912049 29.87339635 28.897244647 27.839812567 26.715826474 25.540001418 24.326698326 23.089630363 
21.841624238 20.594438466 19.358637345 18.143516837 16.957076725 15.806032304 14.695858359 13.630858196 12.614250894 
11.648270598 10.734272494 9.8728409847 9.0638964825 8.3067980433 7.6004398414 6.943340127 6.3337218577 5.7695846422 
5.2487679854 4.7690060847 4.327974619 3.9233300988 3.5527424206 3.2139213093 2.9046373336 2.6227381666 2.3661607285 
27.323722447 27.264508292 27.08784664 26.796645865 26.395641713 25.891236969 25.291290244 24.60486574 23.841957305 
23.013200608 22.12958667 21.202188608 20.241911446 19.2592724 18.264216573 17.26597049 16.272933768 15.29260734 
14.331555287 13.395396321 12.488820434 11.615625957 10.778772406 9.9804447044 9.2221248635 8.5046676747 7.8283775492 
7.1930841817 6.598215243 6.0428647798 5.5258564205 5.0458008339 4.6011471836 4.19022855 3.8113014663 3.4625798512 
3.1422637049 2.8485629949 2.5797171886 2.3340108956 2.1097860805 22.370771856 22.324838971 22.187753092 21.961629575 
21.649918708 21.257297087 20.789523826 20.253269084 19.655923398 19.005396789 18.309916369 17.577830509 16.817426422 
16.03676664 15.243548278 14.444987418 13.647729465 12.857785104 12.080490375 11.320488678 10.581731943 9.8674979466 
9.1804206483 8.5225305227 7.8953020409 7.2997057548 6.736262765 6.2050997104 5.7060027672 5.2384694826 4.8017575716 
4.3949300739 4.0168964991 3.6664497793 3.3422989988 3.0430979957 2.7674700124 2.5140286424 2.2813953546 2.0682139066 
1.8731619621 18.315638889 18.27990978 18.173243836 17.997189539 17.754276293 17.447940065 17.082424535 16.662662542 
16.194143319 15.682771362 15.134722774 14.556304519 13.953821401 13.333454717 12.70115558 12.062554891 11.422890993 
10.786955133 10.15905414 9.5429891311 8.9420486012 8.3590139931 7.7961757051 7.2553574542 6.7379469991 6.2449313637 
5.7769348945 5.3342587018 4.9169202675 4.5246922263 4.157139548 3.8136545409 3.4934892766 3.1957851842 2.9195996888 
2.6639298728 2.4277332172 2.2099455444 2.0094963224 1.8253215279 1.6563742744 14.99557682 14.967715352 14.884514567 
14.74711455 14.557380014 14.317848916 14.0316639 13.702489666 13.334419838 12.931877236 12.499511406 12.042097164 
11.564437482 11.071273567 10.567204384 10.056617214 9.5436302186 9.0320473869 8.5253256913 8.0265538704 7.538441892 
7.0633199204 6.6031454576 6.159517266 5.7336946801 5.3266209804 4.9389495982 4.5710720529 4.2231466669 3.8951272533 
3.5867911232 3.2977658985 3.0275547454 2.7755597624 2.541103352 2.3234474931 2.1218108962 1.9353840832 1.7633424694 
1.6048575606 1.4591063978 12.277339903 12.255564379 12.190521568 12.083055256 11.934547124 11.746880934 11.522394594 
11.263822133 10.974227946 10.656935897 10.3154559 9.9534105379 9.5744640472 9.1822557092 8.7803393107 8.372129925 
7.9608588482 7.5495371173 7.1409276705 6.7375258932 6.3415480301 5.9549267528 5.5793130325 5.2160833933 4.8663515926 
4.5309837892 4.2106163089 3.9056751876 3.616396761 3.3428486664 3.084950724 2.8424952605 2.6151665351 2.4025590116 
2.2041942956 2.0195366265 1.8480068649 1.6889949671 1.5418709725 1.4059945599 1.2807232493 10.051835745 10.034781647 
9.983830255 9.8996090319 9.783146482 9.6358470017 9.4594571191 9.2560244646 9.0278510541 8.7774426173 8.5074557569 
8.2206446923 7.9198092237 7.6077453709 7.2871999099 6.9608297648 6.6311669375 6.3005893859 5.9712980015 5.6452996156 
5.3243957655 5.0101768019 4.7040208046 4.4070967003 4.1203709342 3.8446170427 3.5804274876 3.3282271505 3.0882879391 
2.860744012 2.6456072025 2.4427822804 2.252081765 2.0732400574 1.9059267237 1.7497588065 1.6043120922 1.4691312932 
1.3437391423 1.2276444158 1.1203489266 8.229747049 8.2163654397 8.1763780509 8.1102534994 8.0187606232 7.9029506935 
7.7641334757 7.603848036 7.4238293587 7.2259719443 7.0122916137 6.7848867272 6.5458999689 6.2974817337 6.0417560109 
5.7807894887 5.5165644208 5.2509556138 4.9857117166 4.7224408306 4.4626003216 4.2074905939 3.9582525 3.7158679916 
3.4811635792 3.2548161474 3.0373606742 2.8291994188 2.6306121687 2.4417671742 2.2627324411 2.093487096 1.9339325843 
1.7839035058 1.6431779357 1.511487114 1.3885244258 1.2739536197 1.1674162413 1.0685382786 0.97693603346 6.7379469991 
6.7274288196 6.6959922807 6.643988753 6.5719951909 6.4808014696 6.3713933055 6.2449313637 6.1027272742 5.9462173565 
5.7769348945 5.5964818028 5.4065004927 5.2086466804 5.0045637888 4.795859484 4.5840847701 4.3707159383 4.157139548 
3.9446405019 3.734393174 3.5274554663 3.3247655945 3.1271413529 2.9352815706 2.749769449 2.5710774648 2.3995735234 
2.2355280656 2.0791218467 1.9304541362 1.7895511148 1.6563742744 1.5308286617 1.4127708315 1.3020164082 1.1983471777 
1.1015176559 1.0112611011 0.92729495404 0.84932570472 
Pressure 1 1066 double
100000 84648.172489 71653.131057 60653.065971 51341.711903 43459.820851 36787.944117 31140.322391 26359.713812 
22313.016015 18887.560284 15987.974608 13533.528324 11455.884399 9697.1967864 8208.4998624 6948.3451223 5881.6471642 
4978.7068368 4214.3843509 3567.3993347 3019.7383422 2556.1533207 2163.7370719 1831.5638889 1550.3853599 1312.3728737 
1110.8996538 940.35625515 795.99438487 673.79469991 570.3548998 482.79499938 408.67714385 345.93773365 292.82996948 
247.87521767 209.82184181 177.61035457 150.3439193 127.26338013 76592.833836 73017.865804 65254.514844 56741.36688 
48771.60173 41687.856253 35524.592611 30217.32135 25672.789303 21794.352321 18491.385947 15682.484016 13296.099558 
11270.11962 9551.0222643 8092.908542 6856.5428274 5808.4601473 4920.1629662 4167.4122707 3529.609347 2989.2608695 
2531.5185454 2143.7844138 1815.3733549 1537.2250974 1301.658835 1102.1643923 933.2246555 790.16469581 669.02364511 
566.44594395 479.58906682 406.04525272 343.77513229 291.05145553 246.41139155 208.61610098 176.61647656 149.52411426 
126.5867187 58664.621951 57191.294849 53316.087266 48139.984611 42581.517076 37180.411401 32195.827154 27726.207702 
23786.691353 20351.941807 17378.773589 14817.907078 12619.966802 10738.418123 9130.8650955 7759.4716328 6590.9211062 
5596.1435599 4749.9379309 4030.5598687 3419.3135424 2900.1673757 2459.4030492 2085.3010475 1767.8626347 1498.566317 
1270.1559624 1076.4573962 912.22026293 772.98208589 654.95168669 554.90939997 470.12179544 398.26889106 337.38209283 
285.79132699 242.08003614 205.04689357 173.67325034 147.09546923 124.58142143 44932.896412 44167.687713 42035.038451 
38930.269052 35297.197242 31500.033918 27786.362381 24302.126117 21120.617175 18268.352405 15743.804185 13529.769793 
11601.150371 9929.6830503 8486.727897 7244.8381524 6178.5798682 5264.8949371 4483.1917938 3815.278881 3245.2124482 
2759.1028479 2344.9061989 1992.2173626 1692.0732888 1436.7714606 1219.7054812 1035.2182077 878.47187333 745.33410312 
632.27846387 536.29809622 454.83098451 385.69549008 327.03487495 277.26965925 235.05677596 199.25460336 168.89306602 
143.14809632 121.31984015 34415.378687 33972.833933 32708.442065 30788.165615 28426.051614 25830.969812 23174.581183 
20581.297172 18131.855965 15872.348285 13823.829919 11990.464993 10365.712861 8936.7390318 7687.4259354 6600.3554374 
5658.0668552 4843.8183811 4142.0153531 3538.4195255 3020.2177147 2576.0029454 2195.7037018 1870.4848543 1592.6356207 
1355.454359 1153.1362378 980.66732423 833.72697392 708.59932306 602.0940002 511.47574909 434.40241028 368.87058162 
313.16822743 265.83350473 225.61910347 191.4614439 162.45412855 137.82510477 116.91705101 26359.713812 26087.611886 
25299.930384 24074.894169 22521.22507 20756.096221 18887.560284 17004.520444 15173.524544 13440.03254 11831.854642 
10363.172694 9038.2840208 7854.7145587 6805.6349392 5881.6471642 5072.0557865 4365.7404775 3751.7319451 3219.5732873 
2759.5298322 2362.6944336 2021.0224548 1727.3209632 1475.2094393 1259.0640194 1073.9534828 915.57246843 780.17548263 
664.51391122 565.77731603 481.53966241 409.71069861 348.49243275 296.34048076 251.92995889 214.12554319 181.9553004 
154.58789774 131.3128161 111.52321552 20189.651799 20015.621648 19507.846379 18706.381542 17669.444576 16463.771534 
15155.658485 13804.444708 12458.921331 11156.239815 9922.521368 8774.3865024 7720.8193437 6765.0022638 5905.9333382 
5139.7568354 4460.8046984 3862.3801824 3337.326996 2878.4280937 2478.6737022 2131.4316818 1830.5467066 1570.3888137 
1345.8668994 1152.4187467 985.98605479 842.98055429 720.24550398 615.01553041 524.87679854 447.7287939 381.74849188 
325.35733425 277.19118699 236.07328817 200.9900866 171.06980567 145.5635294 123.82859073 105.31403834 15463.826455 
15349.421915 15013.880885 14478.996961 13777.374068 12947.945218 12031.395153 11066.338374 10086.690489 9120.2770195 
8188.4689209 7306.5333369 6484.3975568 5727.5880522 5038.1832048 4415.6853911 3857.767655 3360.8825549 2920.7395438 
2532.6665355 2191.8746396 1893.6449548 1633.4544818 1407.0556967 1210.5217004 1040.2664259 893.04727932 765.9558418 
656.40084397 562.08651499 480.98854222 411.32921975 351.55286733 300.30223245 256.39631832 218.80988528 186.65473538 
159.16279447 135.67094226 115.60750003 98.480261697 11844.182901 11767.439346 11541.534454 11178.881247 10698.421823 
10123.428602 9479.1114191 8790.4334542 8080.4041036 7368.9570757 6672.3900145 6003.2616269 5370.6121301 4780.3782291 
4235.8979329 3738.4302166 3287.6420072 2882.0367633 2519.3144009 2196.6622859 1910.9827364 1659.065248 1437.7125074 
1243.828985 1074.4800312 926.92828478 798.65304522 687.35717932 590.96517513 507.61514601 435.646919 373.58780298 
320.13720537 274.150934 234.62576509 200.6846654 171.56291185 146.59524641 125.20412738 106.88908476 91.217150441 
9071.7953289 9019.5109051 8865.1920807 8616.164668 8283.7681906 7882.2257351 7427.3578214 6935.3337499 6421.6096788 
5900.1386248 5382.8748268 4879.5473268 4397.6500364 3942.5859979 3517.9067162 3125.5975964 2766.3730853 2439.9571606 
2145.3348416 1880.9679614 1644.9736609 1435.2673683 1249.6738594 1086.0108198 942.14948325 816.05668051 705.82217907 
609.67465655 525.98910023 453.28791129 390.23753406 335.64203738 288.43474652 247.66875536 212.50693246 182.21186389 
156.13604279 133.71251328 114.44609911 97.90529016 83.714817704 6948.3451223 6912.2849934 6805.6349392 6632.8423317 
6400.8647744 6118.565969 5796.0052923 5443.7163846 5072.0557865 4690.6768709 4308.1553034 3931.7667497 3567.3993347 
3219.5732873 2891.5371554 2585.4118529 2302.3584709 2042.751505 1806.3447466 1592.4219079 1399.9278427 1227.5789854 
1073.9534828 937.56262561 816.90578041 710.51124319 616.96540798 534.93247438 463.16666926 400.51868159 345.93773365 
298.47045533 257.25749901 221.52863483 190.59689917 163.8522319 140.75492588 120.82912306 103.65652152 88.870402976 